<?xml version="1.0"?>
<VTKFile type="UnstructuredGrid"  version="0.1"  >
<UnstructuredGrid>
<Piece  NumberOfPoints="12855" NumberOfCells="25206">
<Points>
<DataArray  type="Float64"  NumberOfComponents="3"  format="ascii">0.1464743025111701 0.504425066670267 0  0.1464743025111701 0.4955749333297331 0  0.1466958213176785 0.486727572731024 0  0.1471387201272591 0.4778885286203918 0  0.1478027214200133 0.469063339532987 0  0.1486874091334739 0.4602575353224178 0  0.1497922289233096 0.45147663369575 0  0.1511164885106761 0.4427261367561186 0  0.1526593581159976 0.4340115275551159 0  0.1544198709789057 0.4253382666571166 0  0.1563969239640102 0.4167117887176955 0  0.1585892782521225 0.4081374990782778 0  0.1609955601164987 0.3996207703791586 0  0.1636142617836149 0.3911669391930116 0  0.1664437423779362 0.3827813026809996 0  0.169482228950088 0.3744691152735791 0  0.1727278175877838 0.3662355853780794 0  0.1761784746088145 0.3580858721151209 0  0.1798320378353515 0.3500250820859162 0  0.1836862179487646 0.3420582661724788 0  0.1877385999241071 0.3341904163727466 0  0.1919866445433672 0.326426462672601 0  0.1964276899865394 0.318771269956744 0  0.2010589534995176 0.3112296349603667 0  0.2058775331377664 0.3038062832635197 0  0.2108804095846756 0.2965058663300705 0  0.2160644480434611 0.2893329585931022 0  0.2214264002014245 0.282292054588577 0  0.226962906265343 0.2753875661390666 0  0.2326704970667114 0.2686238195893085 0  0.2385455962355193 0.2620050530953233 0  0.2445845224412007 0.2555354139687907 0  0.2507834916993519 0.249218956078349 0  0.2571386197427716 0.243059637309445 0  0.2636459244553377 0.2370613170843284 0  0.2703013283671982 0.2312277539437408 0  0.277100661209708 0.2255626031918196 0  0.2840396625285156 0.2200694146056873 0  0.2911139843531583 0.2147516302111659 0  0.2983191939214953 0.2096125821260078 0  0.3056507764572732 0.2046554904719926 0  0.3131041379990777 0.199883461357205 0  0.3206746082789057 0.1952994849297492 0  0.3283574436485501 0.1909064335041259 0  0.3361478300519638 0.1867070597614433 0  0.3440408860417431 0.1827039950245899 0  0.3520316658378356 0.1788997476094513 0  0.3601151624265613 0.1752967012532015 0  0.3682863106980022 0.1718971136206559 0  0.3765399906197935 0.1687031148896215 0  0.3848710304453304 0.1657167064161297 0  0.3932742099543798 0.1629397594803887 0  0.401744263724063 0.1603740141142413 0  0.4102758844281644 0.1580210780108635 0  0.4188637261626963 0.155882425517385 0  0.427502407795636 0.1539593967110655 0  0.4361865163387382 0.1522531965596033 0  0.4449106103393055 0.1507648941661045 0  0.4536692232897979 0.1494954220991837 0  0.4624568670531405 0.1484455758086176 0  0.471268035301583 0.1476160131269173 0  0.4800972069669587 0.147007253857131 0  0.4889388497001815 0.1466196794471361 0  0.497787423337806 0.1464535327506242 0  0.5066373833734917 0.1465089178749295 0  0.5154831844321819 0.1467858001157951 0  0.5243192837448297 0.1472840059791186 0  0.5331401446214926 0.1480032232896634 0  0.5419402399206141 0.1489430013866675 0  0.5507140555123254 0.1501027514062267 0  0.559456093733594 0.1514817466502764 0  0.5681608768330506 0.1530791230419395 0  0.5768229504033444 0.1548938796669562 0  0.5854368867988686 0.1569248794008558 0  0.593997288536714 0.1591708496214772 0  0.6024987916787303 0.161630383006393 0  0.6109360691925604 0.1643019384147363 0  0.6193038342895535 0.167183841852877 0  0.6275968437374628 0.1702742875233454 0  0.6358099011458465 0.1735713389563419 0  0.6439378602221212 0.1770729302231274 0  0.6519756279962241 0.1807768672305321 0  0.6599181680118608 0.1846808290957712 0  0.6677605034823437 0.1887823696007076 0  0.6754977204090415 0.1930789187246502 0  0.6831249706604843 0.1975677842547247 0  0.6906374750101987 0.2022461534728126 0  0.6980305261313642 0.207111094917996 0  0.7052994915464196 0.2121595602234084 0  0.7124398165297692 0.2173883860263381 0  0.7194470269617669 0.2227942959503871 0  0.7263167321321959 0.228373902658445 0  0.733044627491483 0.2341237099751918 0  0.7396264973479229 0.2400401150777952 0  0.7460582175092283 0.2461194107534384 0  0.7523357578667415 0.2523577877222519 0  0.758455184920698 0.2587513370242069 0  0.7644126642449529 0.2652960524684645 0  0.7702044628896271 0.2719878331436496 0  0.7758269517201695 0.2788224859874781 0  0.7812766076913698 0.285795728414125 0  0.7865500160548937 0.2929031909976879 0  0.7916438724989606 0.3001404202100635 0  0.7965549852188221 0.3075028812115251 0  0.8012802769167424 0.3149859606922463 0  0.8058167867302308 0.3225849697629975 0  0.8101616720873135 0.3302951468931962 0  0.8143122104876868 0.3381116608944791 0  0.818265801208633 0.3460296139479189 0  0.82201996693463 0.354044044672991 0  0.8255723553096337 0.3621499312363696 0  0.8289207404110635 0.3703421944986039 0  0.8320630241445606 0.3786157011966994 0  0.8349972375586534 0.3869652671606152 0  0.8377215420784999 0.3953856605616609 0  0.8402342306579356 0.4038716051907518 0  0.8425337288491083 0.4124177837644788 0  0.8446185957890238 0.4210188412569082 0  0.8464875251023902 0.4296693882550387 0  0.8481393457201911 0.4383640043358003 0  0.8495730226134753 0.4470972414624844 0  0.8507876574419055 0.4558636273984781 0  0.8517824891166572 0.4646576691361628 0  0.8525568942773162 0.4734738563388244 0  0.853110387682475 0.4823066647934254 0  0.8534426225137854 0.4911505598720711 0  0.8535533905932737 0.5 0  0.8534426225137854 0.5088494401279288 0  0.853110387682475 0.5176933352065743 0  0.8525568942773162 0.5265261436611756 0  0.8517824891166572 0.5353423308638371 0  0.8507876574419055 0.5441363726015217 0  0.8495730226134753 0.5529027585375157 0  0.8481393457201911 0.5616359956641996 0  0.8464875251023903 0.5703306117449611 0  0.8446185957890238 0.5789811587430919 0  0.8425337288491083 0.5875822162355212 0  0.8402342306579358 0.5961283948092477 0  0.8377215420785 0.604614339438339 0  0.8349972375586535 0.6130347328393846 0  0.8320630241445606 0.6213842988033006 0  0.8289207404110635 0.6296578055013959 0  0.8255723553096338 0.6378500687636302 0  0.82201996693463 0.645955955327009 0  0.818265801208633 0.653970386052081 0  0.8143122104876868 0.6618883391055208 0  0.8101616720873134 0.6697048531068039 0  0.8058167867302308 0.6774150302370026 0  0.8012802769167426 0.6850140393077533 0  0.7965549852188223 0.6924971187884748 0  0.7916438724989607 0.6998595797899363 0  0.7865500160548937 0.7070968090023122 0  0.7812766076913698 0.714204271585875 0  0.7758269517201695 0.7211775140125218 0  0.7702044628896271 0.7280121668563504 0  0.764412664244953 0.7347039475315355 0  0.7584551849206982 0.7412486629757931 0  0.7523357578667413 0.7476422122777482 0  0.7460582175092282 0.7538805892465616 0  0.7396264973479232 0.7599598849222045 0  0.7330446274914831 0.7658762900248082 0  0.7263167321321962 0.7716260973415547 0  0.719447026961767 0.7772057040496129 0  0.7124398165297692 0.7826116139736619 0  0.7052994915464197 0.7878404397765915 0  0.6980305261313642 0.792888905082004 0  0.6906374750101987 0.7977538465271874 0  0.6831249706604844 0.8024322157452752 0  0.6754977204090414 0.8069210812753499 0  0.6677605034823437 0.8112176303992924 0  0.6599181680118609 0.8153191709042288 0  0.6519756279962243 0.8192231327694678 0  0.6439378602221214 0.8229270697768725 0  0.6358099011458465 0.8264286610436581 0  0.6275968437374629 0.8297257124766546 0  0.6193038342895537 0.832816158147123 0  0.6109360691925603 0.8356980615852636 0  0.6024987916787303 0.838369616993607 0  0.5939972885367141 0.8408291503785228 0  0.5854368867988684 0.8430751205991442 0  0.5768229504033447 0.8451061203330437 0  0.5681608768330506 0.8469208769580605 0  0.5594560937335941 0.8485182533497235 0  0.5507140555123258 0.8498972485937732 0  0.5419402399206141 0.8510569986133325 0  0.5331401446214927 0.8519967767103366 0  0.5243192837448299 0.8527159940208815 0  0.5154831844321818 0.8532141998842049 0  0.5066373833734917 0.8534910821250705 0  0.4977874233378061 0.8535464672493758 0  0.4889388497001814 0.8533803205528638 0  0.480097206966959 0.852992746142869 0  0.471268035301583 0.8523839868730827 0  0.4624568670531407 0.8515544241913824 0  0.453669223289798 0.8505045779008163 0  0.4449106103393055 0.8492351058338955 0  0.4361865163387382 0.8477468034403968 0  0.4275024077956361 0.8460406032889345 0  0.4188637261626962 0.844117574482615 0  0.4102758844281644 0.8419789219891365 0  0.4017442637240631 0.8396259858857587 0  0.39327420995438 0.8370602405196114 0  0.3848710304453307 0.8342832935838704 0  0.3765399906197936 0.8312968851103786 0  0.3682863106980024 0.8281028863793443 0  0.3601151624265614 0.8247032987467986 0  0.3520316658378356 0.8211002523905486 0  0.3440408860417432 0.8172960049754101 0  0.336147830051964 0.8132929402385569 0  0.32835744364855 0.8090935664958741 0  0.3206746082789057 0.8047005150702508 0  0.3131041379990778 0.800116538642795 0  0.3056507764572735 0.7953445095280076 0  0.2983191939214955 0.7903874178739925 0  0.2911139843531583 0.7852483697888342 0  0.2840396625285157 0.7799305853943128 0  0.2771006612097082 0.7744373968081805 0  0.2703013283671981 0.7687722460562592 0  0.2636459244553378 0.7629386829156717 0  0.2571386197427717 0.7569403626905551 0  0.2507834916993521 0.7507810439216511 0  0.2445845224412008 0.7444645860312094 0  0.2385455962355193 0.7379949469046768 0  0.2326704970667115 0.7313761804106916 0  0.2269629062653432 0.7246124338609334 0  0.2214264002014246 0.717707945411423 0  0.2160644480434611 0.7106670414068978 0  0.2108804095846757 0.7034941336699295 0  0.2058775331377664 0.6961937167364805 0  0.2010589534995176 0.6887703650396334 0  0.1964276899865393 0.6812287300432559 0  0.1919866445433672 0.6735735373273991 0  0.1877385999241071 0.6658095836272535 0  0.1836862179487646 0.6579417338275213 0  0.1798320378353515 0.6499749179140839 0  0.1761784746088146 0.6419141278848793 0  0.1727278175877838 0.6337644146219207 0  0.169482228950088 0.6255308847264209 0  0.1664437423779362 0.6172186973190005 0  0.1636142617836149 0.6088330608069885 0  0.16099556011649
[...]
<PointData  Vectors="f_20"> 
<DataArray  type="Float64"  Name="f_20"  NumberOfComponents="3" format="ascii">5.3464846844488079e-01 6.2528956274244013e-02 0.0000000000000000e+00  5.3251883011707046e-01 6.2528956274244013e-02 0.0000000000000000e+00  5.3120819450372658e-01 6.2607360491012981e-02 0.0000000000000000e+00  5.3070773713387509e-01 6.2763974243569248e-02 0.0000000000000000e+00  5.3100826063965567e-01 6.2998408680531859e-02 0.0000000000000000e+00  5.3210022184235317e-01 6.3310081800106610e-02 0.0000000000000000e+00  5.3397375768449051e-01 6.3698219977115916e-02 0.0000000000000000e+00  5.3661870999144401e-01 6.4161859993534270e-02 0.0000000000000000e+00  5.4002464905377079e-01 6.4699851567809774e-02 0.0000000000000000e+00  5.4418089602860953e-01 6.5310860377069208e-02 0.0000000000000000e+00  5.4907654416516039e-01 6.5993371565122638e-02 0.0000000000000000e+00  5.5470047886532015e-01 6.6745693728001987e-02 0.0000000000000000e+00  5.6104139659608265e-01 6.7565963367582471e-02 0.0000000000000000e+00  5.6808782267529034e-01 6.8452149802657875e-02 0.0000000000000000e+00  5.7582812795676031e-01 6.9402060525659254e-02 0.0000000000000000e+00  5.8425054444473390e-01 7.0413346992033887e-02 0.0000000000000000e+00  5.9334317987099272e-01 7.1483510828130759e-02 0.0000000000000000e+00  6.0309403127090966e-01 7.2609910442278658e-02 0.0000000000000000e+00  6.1349099759713976e-01 7.3789768022595265e-02 0.0000000000000000e+00  6.2452189141166259e-01 7.5020176903927038e-02 0.0000000000000000e+00  6.3617444969845405e-01 7.6298109285204779e-02 0.0000000000000000e+00  6.4843634384024851e-01 7.7620424277401262e-02 0.0000000000000000e+00  6.6129518880365434e-01 7.8983876261209507e-02 0.0000000000000000e+00  6.7473855157734597e-01 8.0385123532517727e-02 0.0000000000000000e+00  6.8875395890819935e-01 8.1820737212753361e-02 0.0000000000000000e+00  7.0332890438007845e-01 8.3287210400206896e-02 0.0000000000000000e+00  7.1845085487957550e-01 8.4780967537523871e-02 0.0000000000000000e+00  7.3410725649233566e-01 8.6298373969692393e-02 0.0000000000000000e+00  7.5028553987273749e-01 8.7835745666042103e-02 0.0000000000000000e+00  7.6697312512862448e-01 8.9389359079026648e-02 0.0000000000000000e+00  7.8415742626155893e-01 9.0955461111888403e-02 0.0000000000000000e+00  8.0182585520168970e-01 9.2530279166702561e-02 0.0000000000000000e+00  8.1996582547481789e-01 9.4110031243782075e-02 0.0000000000000000e+00  8.3856475553764231e-01 9.5690936062994059e-02 0.0000000000000000e+00  8.5761007181546633e-01 9.7269223177199882e-02 0.0000000000000000e+00  8.7708921147489904e-01 9.8841143047795232e-02 0.0000000000000000e+00  8.9698962496223544e-01 1.0040297705218526e-01 0.0000000000000000e+00  9.1729877833638662e-01 1.0195104739300848e-01 0.0000000000000000e+00  9.3800415542331050e-01 1.0348172687899848e-01 0.0000000000000000e+00  9.5909325981703053e-01 1.0499144854757925e-01 0.0000000000000000e+00  9.8055361675042296e-01 1.0647671509959861e-01 0.0000000000000000e+00  1.0023727748570561e+00 1.0793410811704680e-01 0.0000000000000000e+00  1.0245383078435246e+00 1.0936029703516176e-01 0.0000000000000000e+00  1.0470378160898459e+00 1.1075204784100556e-01 0.0000000000000000e+00  1.0698589281936925e+00 1.1210623147139687e-01 0.0000000000000000e+00  1.0929893024724608e+00 1.1341983188401188e-01 0.0000000000000000e+00  1.1164166284354209e+00 1.1468995377650643e-01 0.0000000000000000e+00  1.1401286282365430e+00 1.1591382992967447e-01 0.0000000000000000e+00  1.1641130581169361e+00 1.1708882815193251e-01 0.0000000000000000e+00  1.1883577098442484e+00 1.1821245780380199e-01 0.0000000000000000e+00  1.2128504121548822e+00 1.1928237588254720e-01 0.0000000000000000e+00  1.2375790322033848e+00 1.2029639264871364e-01 0.0000000000000000e+00  1.2625314770219633e+00 1.2125247677798281e-01 0.0000000000000000e+00  1.2876956949917484e+00 1.2214876002352068e-01 0.0000000000000000e+00  1.3130596773261147e+00 1.2298354137582707e-01 0.0000000000000000e+00  1.3386114595651544e+00 1.2375529070899083e-01 0.0000000000000000e+00  1.3643391230792292e+00 1.2446265190421080e-01 0.0000000000000000e+00  1.3902307965784031e+00 1.2510444544343660e-01 0.0000000000000000e+00  1.4162746576235417e+00 1.2567967046802087e-01 0.0000000000000000e+00  1.4424589341338510e+00 1.2618750629932546e-01 0.0000000000000000e+00  1.4687719058846991e+00 1.2662731342029562e-01 0.0000000000000000e+00  1.4952019059887209e+00 1.2699863391908139e-01 0.0000000000000000e+00  1.5217373223523722e+00 1.2730119139784118e-01 0.0000000000000000e+00  1.5483665990993396e+00 1.2753489035189686e-01 0.0000000000000000e+00  1.5750782379515700e+00 1.2769981502640454e-01 0.0000000000000000e+00  1.6018607995579675e+00 1.2779622775965682e-01 0.0000000000000000e+00  1.6287029047603081e+00 1.2782456682402238e-01 0.0000000000000000e+00  1.6555932357853500e+00 1.2778544377735640e-01 0.0000000000000000e+00  1.6825205373516798e+00 1.2767964033945223e-01 0.0000000000000000e+00  1.7094736176794298e+00 1.2750810480976676e-01 0.0000000000000000e+00  1.7364413493906743e+00 1.2727194804420305e-01 0.0000000000000000e+00  1.7634126702879986e+00 1.2697243901018351e-01 0.0000000000000000e+00  1.7903765839985801e+00 1.2661099994058556e-01 0.0000000000000000e+00  1.8173221604709169e+00 1.2618920110831999e-01 0.0000000000000000e+00  1.8442385363112728e+00 1.2570875524442193e-01 0.0000000000000000e+00  1.8711149149469426e+00 1.2517151162347584e-01 0.0000000000000000e+00  1.8979405666034039e+00 1.2457944984101649e-01 0.0000000000000000e+00  1.9247048280826671e+00 1.2393467330822289e-01 0.0000000000000000e+00  1.9513971023302734e+00 1.2323940248976317e-01 0.0000000000000000e+00  1.9780068577787047e+00 1.2249596791104356e-01 0.0000000000000000e+00  2.0045236274553706e+00 1.2170680296136666e-01 0.0000000000000000e+00  2.0309370078437903e+00 1.2087443651962358e-01 0.0000000000000000e+00  2.0572366574871350e+00 1.2000148542911676e-01 0.0000000000000000e+00  2.0834122953240004e+00 1.1909064684795445e-01 0.0000000000000000e+00  2.1094536987469952e+00 1.1814469050116926e-01 0.0000000000000000e+00  2.1353507013756285e+00 1.1716645086030131e-01 0.0000000000000000e+00  2.1610931905359592e+00 1.1615881927565141e-01 0.0000000000000000e+00  2.1866711044405331e+00 1.1512473608576912e-01 0.0000000000000000e+00  2.2120744290634007e+00 1.1406718272798828e-01 0.0000000000000000e+00  2.2372931947063019e+00 1.1298917387297923e-01 0.0000000000000000e+00  2.2623174722535855e+00 1.1189374960535343e-01 0.0000000000000000e+00  2.2871373691150367e+00 1.1078396767134235e-01 0.0000000000000000e+00  2.3117430248575190e+00 1.0966289581349664e-01 0.0000000000000000e+00  2.3361246065281795e+00 1.0853360421120667e-01 0.0000000000000000e+00  2.3602723036740354e+00 1.0739915804466105e-01 0.0000000000000000e+00  2.3841763230648403e+00 1.0626261019863253e-01 0.0000000000000000e+00  2.4078268831285015e+00 1.0512699412122362e-01 0.0000000000000000e+00  2.4312142081106995e+00 1.0399531685143448e-01 0.0000000000000000e+00  2.4543285219729665e+00 1.0287055222813363e-01 0.0000000000000000e+00  2.4771600420462141e+00 1.0175563429173384e-01 0.0000000000000000e+00  2.4996989724595444e+00 1.0065345088860833e-01 0.0000000000000000e+00  2.5219354973671573e+00 9.9566837487040094e-02 0.0000000000000000e+00  2.5438597739993178e+00 9.8498571212277952e-02 0.0000000000000000e+00  2.5654619255665487e+00 9.7451365107097510e-02 0.0000000000000000e+00  2.5867320340495641e+00 9.6427862623135185e-02 0.0000000000000000e+00  2.6076601329109099e+00 9.5430632347182187e-02 0.0000000000000000e+00  2.6282361997677759e+00 9.4462162965611052e-02 0.0000000000000000e+00  2.6484501490690509e+00 9.3524858469148153e-02 0.0000000000000000e+00  2.6682918248233189e+00 9.2621033599330951e-02 0.0000000000000000e+00  2.6877509934281472e+00 9.1752909537171190e-02 0.0000000000000000e+00  2.7068173366547121e+00 9.0922609833823720e-02 0.0000000000000000e+00  2.7254804448454477e+00 9.0132156582404810e-02 0.0000000000000000e+00  2.7437298103859877e+00 8.9383466829540570e-02 0.0000000000000000e+00  2.7615548215162322e+00 8.8678349224742145e-02 0.0000000000000000e+00  2.7789447565487668e+00 8.8018500905304664e-02 0.0000000000000000e+00  2.7958887785661224e+00 8.7405504614112339e-02 0.0000000000000000e+00  2.8123759306715082e+00 8.6840826047495712e-02 0.0000000000000000e+00  2.8283951318704412e+00 8.6325811430139510e-02 0.0000000000000000e+00  2.8439351736633935e+00 8.5861685313953551e-02 0.0000000000000000e+00  2.8589847174318077e+00 8.5449548597827163e-02 0.0000000000000000e+00  2.8735322927018303e+00 8.5090376765246944e-02 0.0000000000000000e+00  2.8875662963716633e+00 8.4785018336893558e-02 0.0000000000000000e+00  2.9010749929895399e+00 8.4534193535523272e-02 0.0000000000000000e+00  2.9140465161699720e+00 8.4338493160687478e-02 0.0000000000000000e+00  2.9264688712359965e+00 8.4198377671136249e-02 0.0000000000000000e+00  2.9383299391746704e+00 8.4114176473083724e-02 0.0000000000000000e+00  2.9496174819919236e+00 8.4086087412887589e-02 0.0000000000000000e+00  2.9603191495510983e+00 8.4114176473083724e-02 0.0000000000000000e+00  2.9704224879769843e+00 8.4198377671136249e-02 0.0000000000000000e+00  2.9799149497038968e+00 8.4338493160687478e-02 0.0000000000000000e+00  2.9887839052422720e+00 8.4534193535523272e-02 0.0000000000000000e+00  2.9970166567333973e+00 8.4785018336893558e-02 0.0000000000000000e+00  3.0046004533561304e+00 8.5090376765246944e-02 0.0000000000000000e+00  3.0115225086428756e+00 8.5449548597827163e-02 0.0000000000000000e+00  3.0177700197546100e+00 8.5861685313953495e-02 0.0000000000000000e+00  3.0233301887563195e+00 8.6325811430139510e-02 0.0000000000000000e+00  3.0281902459249794e+00 8.6840826047495712e-02 0.0000000000000000e+00  3.0323374751120258e+00 8.7405504614112228e-02 0.0000000000000000e+00  3.0357592411712231e+00 8.8018500905304720e-02 0.0000000000000000e+00  3.0384430194509870e+00 8.8678349224742103e-02 0.0000000000000000e+00  3.0403764273375287e+00 8.9383466829540570e-02 0.0000000000000000e+00  3.0415472578217582e+00 9.0132156582404810e-02 0.0000000000000000e+00  3.0419435150487648e+00 9.0922609833823775e-02 0.0000000000000000e+00  3.0415534517939506e+00 9.1752909537171190e-02 0.0000000000000000e+00  3.0403656087945592e+00 9.2621033599330937e-02 0.0000000000000000e+00  3.0383688558496469e+00 9.3524858469148153e-02 0.0000000000000000e+00  3.0355524345853873e+00 9.4462162965610996e-02 0.0000000000000000e+00  3.0319060027663136e+00 9.5430632347182187e-02 0.0000000000000000e+00  3.0274196800166200e+00 9.6427862623135074e-02 0.0000000000000000e+00  3.0220840947992222e+00 9.7451365107097510e-02 0.0000000000000000e+00  3.0158904324840257e+00 9.8498571212278008e-02 0.0000000000000000e+00  3.0088304843208595e+00 9.9566837487040108e-02 0.0000000000000000e+00  3.0008966971170628e+00 1.0065345088860835e-01 0.0000000000000000e+00  2.9920822234048261e+00 1.0175563429173384e-01 0.0000000000000000e+00  2.9823809718693024e+00 1.0287055222813363e-01 0.0000000000000000e+00  2.9717876577953577e+00 1.0399531685143443e-01 0.0000000000000000e+00  2.9602978532788242e+00 1.0512699412122362e-01 0.0000000000000000e+00  2.9479080369373438e+00 1.0626261019863259e-01 0.0000000000000000e+00  2.9346156428465902e+00 1.0739915804466112e-01 0.0000000000000000e+00  2.9204191084199183e+00 1.0853360421120661e-01 0.0000000000000000e+00  2.9053179209434825e+00 1.0966289581349671e-01 0.0000000000000000e+00  2.8893126624747287e+00 1.1078396767134234e-01 0.0000000000000000e+00  2.8724050528099982e+00 1.1189374960535337e-01 0.0000000000000000e+00  2.8545979902268970e+00 1.1298917387297924e-01 0.0000000000000000e+00  2.8358955897092128e+00 1.1406718272798823e-01 0.0000000000000000e+00  2.8163032183664960e+00 1.1512473608576912e-01 0.0000000000000000e+00  2.7958275277670648e+00 1.1615881927565141e-01 0.0000000000000000e+00  2.7744764829122253e+00 1.1716645086030136e-01 0.0000000000000000e+00  2.7522593875907644e+00 1.1814469050116932e-01 0.0000000000000000e+00  2.7291869058664737e+00 1.1909064684795444e-01 0.0000000000000000e+00  2.7052710794673782e+00 1.2000148542911682e-01 0.0000000000000000e+00  2.6805253408634915e+00 1.2087443651962360e-01 0.0000000000000000e+00  2.6549645218402205e+00 1.2170680296136654e-01 0.0000000000000000e+00  2.6286048573968452e+00 1.2249596791104356e-01 0.0000000000000000e+00  2.6014639848236532e+00 1.2323940248976312e-01 0.0000000000000000e+00  2.5735609378372444e+00 1.2393467330822278e-01 0.0000000000000000e+00  2.5449161356809125e+00 1.2457944984101654e-01 0.0000000000000000e+00  2.5155513671257839e+00 1.2517151162347584e-01 0.0000000000000000e+00  2.4854897693382485e+00 1.2570875524442188e-01 0.0000000000000000e+00  2.4547558016099411e+00 1.2618920110831999e-01 0.0000000000000000e+00  2.4233752139778684e+00 1.2661099994058550e-01 0.0000000000000000e+00  2.3913750107939391e+00 1.2697243901018351e-01 0.0000000000000000e+00  2.3587834093349480e+00 1.2727194804420300e-01 0.0000000000000000e+00  2.3256297935755468e+00 1.2750810480976682e-01 0.0000000000000000e+00  2.2919446632778575e+00 1.2767964033945223e-01 0.0000000000000000e+00  2.2577595785816134e+00 1.2778544377735634e-01 0.0000000000000000e+00  2.2231071003079830e+00 1.2782456682402238e-01 0.0000000000000000e+00  2.1880207262181601e+00 1.2779622775965677e-01 0.0000000000000000e+00  2.1525348234941477e+00 1.2769981502640454e-01 0.0000000000000000e+00  2.1166845577337043e+00 1.2753489035189688e-01 0.0000000000000000e+00  2.0805058187739340e+00 1.2730119139784121e-01 0.0000000000000000e+00  2.0440351436782596e+00 1.2699863391908145e-01 0.0000000000000000e+00  2.0073096372393020e+00 1.2662731342029562e-01 0.0000000000000000e+00  1.9703668903654936e+00 1.2618750629932543e-01 0.0000000000000000e+00  1.9332448967316704e+00 1.2567967046802084e-01 0.0000000000000000e+00  1.8959819680836532e+00 1.2510444544343660e-01 0.0000000000000000e+00  1.8586166485935340e+00 1.2446265190421082e-01 0.0000000000000000e+00  1.8211876286662456e+00 1.2375529070899080e-01 0.0000000000000000e+00  1.7837336585988330e+00 1.2298354137582700e-01 0.0000000000000000e+00  1.7462934624917417e+00 1.2214876002352068e-01 0.0000000000000000e+00  1.7089056528064459e+00 1.2125247677798287e-01 0.0000000000000000e+00  1.6716086459558928e+00 1.2029639264871372e-01 0.0000000000000000e+00  1.6344405793036634e+00 1.1928237588254723e-01 0.0000000000000000e+00  1.5974392299345825e+00 1.1821245780380202e-01 0.0000000000000000e+00  1.5606419355438801e+00 1.1708882815193261e-01 0.0000000000000000e+00  1.5240855177740942e+00 1.1591382992967444e-01 0.0000000000000000e+00  1.4878062083089314e+00 1.1468995377650651e-01 0.0000000000000000e+00  1.4518395780114217e+00 1.1341983188401192e-01 0.0000000000000000e+00  1.4162204693702312e+00 1.1210623147139684e-01 0.0000000000000000e+00  1.3809829324930598e+00 1.1075204784100551e-01 0.0000000000000000e+00  1.3461601648600050e+00 1.0936029703516176e-01 0.0000000000000000e+00  1.3117844550227815e+00 1.0793410811704685e-01 0.0000000000000000e+00  1.2778871304080730e+00 1.0647671509959861e-01 0.0000000000000000e+00  1.2444985093552534e+00 1.0499144854757925e-01 0.0000000000000000e+00  1.2116478574905565e+00 1.0348172687899851e-01 0.0000000000000000e+00  1.1793633485116570e+00 1.0195104739300850e-01 0.0000000000000000e+00  1.1476720294289322e+00 1.0040297705218534e-01 0.0000000000000000e+00  1.1165997902824225e+00 9.8841143047795177e-02 0.0000000000000000e+00  1.0861713383271274e+00 9.7269223177199909e-02 0.0000000000000000e+00  1.0564101766537748e+00 9.5690936062994003e-02 0.0000000000000000e+00  1.0273385871879088e+00 9.4110031243782033e-02 0.0000000000000000e+00  9.9897761798710161e-01 9.2530279166702478e-02 0.0000000000000000e+00  9.7134707473451964e-01 9.0955461111888403e-02 0.0000000000000000e+00  9.4446551630708031e-01 8.9389359079026676e-02 0.0000000000000000e+00  9.1835025427808148e-01 8.7835745666042159e-02 0.0000000000000000e+00  8.9301735619759715e-01 8.6298373969692435e-02 0.0000000000000000e+00  8.6848165247914832e-01 8.4780967537523899e-02 0.0000000000000000e+00  8.4475674670822820e-01 8.3287210400206951e-02 0.0000000000000000e+00  8.2185502917718689e-01 8.1820737212753375e-02 0.0000000000000000e+00  7.9978769344179934e-01 8.0385123532517769e-02 0.0000000000000000e+00  7.7856475568747796e-01 7.8983876261209479e-02 0.0000000000000000e+00  7.5819507668760244e-01 7.7620424277401179e-02 0.0000000000000000e+00  7.3868638613265603e-01 7.6298109285204779e-02 0.0000000000000000e+00  7.2004530910685538e-01 7.5020176903927038e-02 0.0000000000000000e+00  7.0227739448852233e-01 7.3789768022595292e-02 0.0000000000000000e+00  6.8538714505161813e-01 7.2609910442278686e-02 0.0000000000000000e+00  6.6937804904843468e-01 7.1483510828130786e-02 0.0000000000000000e+00  6.5425261305738913e-01 7.0413346992033887e-02 0.0000000000000000e+00  6.4001239588503855e-01 6.9402060525659282e-02 0.0000000000000000e+00  6.2665804331774666e-01 6.8452149802657791e-02 0.0000000000000000e+00  6.1418932352572475e-01 6.7565963367582499e-02 0.0000000000000000e+00  6.0260516293037103e-01 6.6745693728001987e-02 0.0000000000000000e+00  5.9190368235478374e-01 6.5993371565122638e-02 0.0000000000000000e+00  5.8208223328692665e-01 6.5310860377069208e-02 0.0000000000000000e+00  5.7313743409505913e-01 6.4699851567809774e-02 0.0000000000000000e+00  5.6506520604558375e-01 6.4161859993534298e-02 0.0000000000000000e+00  5.5786080898432067e-01 6.3698219977115916e-02 0.0000000000000000e+00  5.5151887655327281e-01 6.3310081800106610e-02 0.0000000000000000e+00  5.4603345082609334e-01 6.2998408680531859e-02 0.0000000000000000e+00  5.4139801625663631e-01 6.2763974243569248e-02 0.0000000000000000e+00  5.3760553284606050e-01 6.2607360491012981e-02 0.0000000000000000e+00  1.7904380581961157e+00 1.2758768105660589e-01 0.0000000000000000e+00  2.4149052681314398e+00 1.1887946604958077e-01 0.0000000000000000e+00  2.1123116186124684e+00 1.2323394690903566e-01 0.0000000000000000e+00  2.0588320880892925e+00 1.2779938121774562e-01 0.0000000000000000e+00  1.4884971749329750e+00 1.2507946173814646e-01 0.0000000000000000e+00  1.3891660825270353e+00 1.1660860577610124e-01 0.0000000000000000e+00  1.1429433433917047e+00 1.0974293618259180e-01 0.0000000000000000e+00  1.7976534088291993e+00 1.2745543051784070e-01 0.0000000000000000e+00  2.5006832374695480e+00 1.2060858681017317e-01 0.0000000000000000e+00  2.4913541981358138e+00 1.1065752768060710e-01 0.0000000000000000e+00  1.6821515908603992e+00 1.2320498308310558e-01 0.0000000000000000e+00  9.9400618331661317e-01 9.8144651997645133e-02 0.0000000000000000e+00  1.1107654652222221e+00 1.1097849362272916e-01 0.0000000000000000e+00  1.7997126295158461e+00 1.2779317844589172e-01 0.0000000000000000e+00  2.0987695280487335e+00 1.2693030858314971e-01 0.0000000000000000e+00  2.0943019047687259e+00 1.2146067984566503e-01 0.0000000000000000e+00  1.4800079978212806e+00 1.2340319836568447e-01 0.0000000000000000e+00  1.4863431651270400e+00 1.2186163671189595e-01 0.0000000000000000e+00  1.7797587170058131e+00 1.2679449147585112e-01 0.0000000000000000e+00  1.5048249734150636e+00 1.2638552868980457e-01 0.0000000000000000e+00  2.7080589125837973e+00 1.0954988572353351e-01 0.0000000000000000e+00  2.3657268842736729e+00 1.2568619338526246e-01 0.0000000000000000e+00  2.0397088876060980e+00 1.2765063409367056e-01 0.0000000000000000e+00  2.3578368491317354e+00 1.1267552543581133e-01 0.0000000000000000e+00  1.3174435184967790e+00 1.1126924891196842e-01 0.0000000000000000e+00  2.2332153260248560e+00 1.2205191909488272e-01 0.0000000000000000e+00  8.4642720475390010e-01 9.0390298819272755e-02 0.0000000000000000e+00  2.6811054881558656e+00 1.0536242690081556e-01 0.0000000000000000e+00  1.2677264226302112e+00 1.1951212376901846e-01 0.0000000000000000e+00  9.1863896704183334e-01 9.7776268742183439e-02 0.0000000000000000e+00  1.0489481610553213e+00 9.8995354077604764e-02 0.0000000000000000e+00  1.9528566969876473e+00 1.2722212350675677e-01 0.0000000000000000e+00  1.2211379914360814e+00 1.1175528385322467e-01 0.0000000000000000e+00  1.7142528779