<?xml version="1.0"?>
<VTKFile type="UnstructuredGrid"  version="0.1"  >
<UnstructuredGrid>
<Piece  NumberOfPoints="16177" NumberOfCells="31868">
<Points>
<DataArray  type="Float64"  NumberOfComponents="3"  format="ascii">0.445 0.145 0  0.45 0.145 0  0.45 0.15 0  0.445 0.15 0  0.455 0.145 0  0.455 0.15 0  0.46 0.145 0  0.46 0.15 0  0.465 0.145 0  0.465 0.15 0  0.47 0.145 0  0.47 0.15 0  0.475 0.145 0  0.475 0.15 0  0.48 0.145 0  0.48 0.15 0  0.485 0.145 0  0.485 0.15 0  0.49 0.145 0  0.49 0.15 0  0.495 0.145 0  0.495 0.15 0  0.5 0.145 0  0.5 0.15 0  0.505 0.145 0  0.505 0.15 0  0.51 0.145 0  0.51 0.15 0  0.515 0.145 0  0.515 0.15 0  0.52 0.145 0  0.52 0.15 0  0.525 0.145 0  0.525 0.15 0  0.53 0.145 0  0.53 0.15 0  0.535 0.145 0  0.535 0.15 0  0.54 0.145 0  0.54 0.15 0  0.545 0.145 0  0.545 0.15 0  0.55 0.145 0  0.55 0.15 0  0.555 0.15 0  0.42 0.15 0  0.425 0.15 0  0.425 0.155 0  0.42 0.155 0  0.43 0.15 0  0.43 0.155 0  0.435 0.15 0  0.435 0.155 0  0.44 0.15 0  0.44 0.155 0  0.445 0.155 0  0.45 0.155 0  0.455 0.155 0  0.46 0.155 0  0.465 0.155 0  0.47 0.155 0  0.475 0.155 0  0.48 0.155 0  0.485 0.155 0  0.49 0.155 0  0.495 0.155 0  0.5 0.155 0  0.505 0.155 0  0.51 0.155 0  0.515 0.155 0  0.52 0.155 0  0.525 0.155 0  0.53 0.155 0  0.535 0.155 0  0.54 0.155 0  0.545 0.155 0  0.55 0.155 0  0.555 0.155 0  0.5600000000000001 0.15 0  0.5600000000000001 0.155 0  0.5649999999999999 0.15 0  0.5649999999999999 0.155 0  0.57 0.15 0  0.57 0.155 0  0.575 0.15 0  0.575 0.155 0  0.58 0.155 0  0.4 0.155 0  0.405 0.155 0  0.405 0.16 0  0.4 0.16 0  0.41 0.155 0  0.41 0.16 0  0.415 0.155 0  0.415 0.16 0  0.42 0.16 0  0.425 0.16 0  0.43 0.16 0  0.435 0.16 0  0.44 0.16 0  0.445 0.16 0  0.45 0.16 0  0.455 0.16 0  0.46 0.16 0  0.465 0.16 0  0.47 0.16 0  0.475 0.16 0  0.48 0.16 0  0.485 0.16 0  0.49 0.16 0  0.495 0.16 0  0.5 0.16 0  0.505 0.16 0  0.51 0.16 0  0.515 0.16 0  0.52 0.16 0  0.525 0.16 0  0.53 0.16 0  0.535 0.16 0  0.54 0.16 0  0.545 0.16 0  0.55 0.16 0  0.555 0.16 0  0.5600000000000001 0.16 0  0.5649999999999999 0.16 0  0.57 0.16 0  0.575 0.16 0  0.58 0.16 0  0.585 0.155 0  0.585 0.16 0  0.59 0.155 0  0.59 0.16 0  0.595 0.155 0  0.595 0.16 0  0.6 0.16 0  0.385 0.16 0  0.39 0.16 0  0.39 0.165 0  0.385 0.165 0  0.395 0.16 0  0.395 0.165 0  0.4 0.165 0  0.405 0.165 0  0.41 0.165 0  0.415 0.165 0  0.42 0.165 0  0.425 0.165 0  0.43 0.165 0  0.435 0.165 0  0.44 0.165 0  0.445 0.165 0  0.45 0.165 0  0.455 0.165 0  0.46 0.165 0  0.465 0.165 0  0.47 0.165 0  0.475 0.165 0  0.48 0.165 0  0.485 0.165 0  0.49 0.165 0  0.495 0.165 0  0.5 0.165 0  0.505 0.165 0  0.51 0.165 0  0.515 0.165 0  0.52 0.165 0  0.525 0.165 0  0.53 0.165 0  0.535 0.165 0  0.54 0.165 0  0.545 0.165 0  0.55 0.165 0  0.555 0.165 0  0.5600000000000001 0.165 0  0.5649999999999999 0.165 0  0.57 0.165 0  0.575 0.165 0  0.58 0.165 0  0.585 0.165 0  0.59 0.165 0  0.595 0.165 0  0.6 0.165 0  0.605 0.16 0  0.605 0.165 0  0.61 0.16 0  0.61 0.165 0  0.615 0.165 0  0.37 0.165 0  0.375 0.165 0  0.375 0.17 0  0.37 0.17 0  0.38 0.165 0  0.38 0.17 0  0.385 0.17 0  0.39 0.17 0  0.395 0.17 0  0.4 0.17 0  0.405 0.17 0  0.41 0.17 0  0.415 0.17 0  0.42 0.17 0  0.425 0.17 0  0.43 0.17 0  0.435 0.17 0  0.44 0.17 0  0.445 0.17 0  0.45 0.17 0  0.455 0.17 0  0.46 0.17 0  0.465 0.17 0  0.47 0.17 0  0.475 0.17 0  0.48 0.17 0  0.485 0.17 0  0.49 0.17 0  0.495 0.17 0  0.5 0.17 0  0.505 0.17 0  0.51 0.17 0  0.515 0.17 0  0.52 0.17 0  0.525 0.17 0  0.53 0.17 0  0.535 0.17 0  0.54 0.17 0  0.545 0.17 0  0.55 0.17 0  0.555 0.17 0  0.5600000000000001 0.17 0  0.5649999999999999 0.17 0  0.57 0.17 0  0.575 0.17 0  0.58 0.17 0  0.585 0.17 0  0.59 0.17 0  0.595 0.17 0  0.6 0.17 0  0.605 0.17 0  0.61 0.17 0  0.615 0.17 0  0.62 0.165 0  0.62 0.17 0  0.625 0.165 0  0.625 0.17 0  0.63 0.17 0  0.36 0.17 0  0.365 0.17 0  0.365 0.175 0  0.36 0.175 0  0.37 0.175 0  0.375 0.175 0  0.38 0.175 0  0.385 0.175 0  0.39 0.175 0  0.395 0.175 0  0.4 0.175 0  0.405 0.175 0  0.41 0.175 0  0.415 0.175 0  0.42 0.175 0  0.425 0.175 0  0.43 0.175 0  0.435 0.175 0  0.44 0.175 0  0.445 0.175 0  0.45 0.175 0  0.455 0.175 0  0.46 0.175 0  0.465 0.175 0  0.47 0.175 0  0.475 0.175 0  0.48 0.175 0  0.485 0.175 0  0.49 0.175 0  0.495 0.175 0  0.5 0.175 0  0.505 0.175 0  0.51 0.175 0  0.515 0.175 0  0.52 0.175 0  0.525 0.175 0  0.53 0.175 0  0.535 0.175 0  0.54 0.175 0  0.545 0.175 0  0.55 0.175 0  0.555 0.175 0  0.5600000000000001 0.175 0  0.5649999999999999 0.175 0  0.57 0.175 0  0.575 0.175 0  0.58 0.175 0  0.585 0.175 0  0.59 0.175 0  0.595 0.175 0  0.6 0.175 0  0.605 0.175 0  0.61 0.175 0  0.615 0.175 0  0.62 0.175 0  0.625 0.175 0  0.63 0.175 0  0.635 0.17 0  0.635 0.175 0  0.64 0.175 0  0.345 0.175 0  0.35 0.175 0  0.35 0.18 0  0.345 0.18 0  0.355 0.175 0  0.355 0.18 0  0.36 0.18 0  0.365 0.18 0  0.37 0.18 0  0.375 0.18 0  0.38 0.18 0  0.385 0.18 0  0.39 0.18 0  0.395 0.18 0  0.4 0.18 0  0.405 0.18 0  0.41 0.18 0  0.415 0.18 0  0.42 0.18 0  0.425 0.18 0  0.43 0.18 0  0.435 0.18 0  0.44 0.18 0  0.445 0.18 0  0.45 0.18 0  0.455 0.18 0  0.46 0.18 0  0.465 0.18 0  0.47 0.18 0  0.475 0.18 0  0.48 0.18 0  0.485 0.18 0  0.49 0.18 0  0.495 0.18 0  0.5 0.18 0  0.505 0.18 0  0.51 0.18 0  0.515 0.18 0  0.52 0.18 0  0.525 0.18 0  0.53 0.18 0  0.535 0.18 0  0.54 0.18 0  0.545 0.18 0  0.55 0.18 0  0.555 0.18 0  0.5600000000000001 0.18 0  0.5649999999999999 0.18 0  0.57 0.18 0  0.575 0.18 0  0.58 0.18 0  0.585 0.18 0  0.59 0.18 0  0.595 0.18 0  0.6 0.18 0  0.605 0.18 0  0.61 0.18 0  0.615 0.18 0  0.62 0.18 0  0.625 0.18 0  0.63 0.18 0  0.635 0.18 0  0.64 0.18 0  0.645 0.175 0  0.645 0.18 0  0.65 0.175 0  0.65 0.18 0  0.655 0.18 0  0.335 0.18 0  0.34 0.18 0  0.34 0.185 0  0.335 0.185 0  0.345 0.185 0  0.35 0.185 0  0.355 0.185 0  0.36 0.185 0  0.365 0.185 0  0.37 0.185 0  0.375 0.185 0  0.38 0.185 0  0.385 0.185 0  0.39 0.185 0  0.395 0.185 0  0.4 0.185 0  0.405 0.185 0  0.41 0.185 0  0.415 0.185 0  0.42 0.185 0  0.425 0.185 0  0.43 0.185 0  0.435 0.185 0  0.44 0.185 0  0.445 0.185 0  0.45 0.185 0  0.455 0.185 0  0.46 0.185 0  0.465 0.185 0  0.47 0.185 0  0.475 0.185 0  0.48 0.185 0  0.485 0.185 0  0.49 0.185 0  0.495 0.185 0  0.5 0.185 0  0.505 0.185 0  0.51 0.185 0  0.515 0.185 0  0.52 0.185 0  0.525 0.185 0  0.53 0.185 0  0.535 0.185 0  0.54 0.185 0  0.545 0.185 0  0.55 0.185 0  0.555 0.185 0  0.5600000000000001 0.185 0  0.5649999999999999 0.185 0  0.57 0.185 0  0.575 0.185 0  0.58 0.185 0  0.585 0.185 0  0.59 0.185 0  0.595 0.185 0  0.6 0.185 0  0.605 0.185 0  0.61 0.185 0  0.615 0.185 0  0.62 0.185 0  0.625 0.185 0  0.63 0.185 0  0.635 0.185 0  0.64 0.185 0  0.645 0.185 0  0.65 0.185 0  0.655 0.185 0  0.66 0.18 0  0.66 0.185 0  0.665 0.185 0  0.33 0.185 0  0.335 0.19 0  0.33 0.19 0  0.34 0.19 0  0.345 0.19 0  0.35 0.19 0  0.355 0.19 0  0.36 0.19 0  0.365 0.19 0  0.37 0.19 0  0.375 0.19 0  0.38 0.19 0  0.385 0.19 0  0.39 0.19 0  0.395 0.19 0  0.4 0.19 0  0.405 0.19 0  0.41 0.19 0  0.415 0.19 0  0.42 0.19 0  0.425 0.19 0  0.43 0.19 0  0.435 0.19 0  0.44 0.19 0  0.445 0.19 0  0.45 0.19 0  0.455 0.19 0  0.46 0.19 0  0.465 0.19 0  0.47 0.19 0  0.475 0.19 0  0.48 0.19 0  0.485 0.19 0  0.49 0.19 0  0.495 0.19 0  0.5 0.19 0  0.505 0.19 0  0.51 0.19 0  0.515 0.19 0  0.52 0.19 0  0.525 0.19 0  0.53 0.19 0  0.535 0.19 0  0.54 0.19 0  0.545 0.19 0  0.55 0.19 0  0.555 0.19 0  0.5600000000000001 0.19 0  0.5649999999999999 0.19 0  0.57 0.19 0  0.575 0.19 0  0.58 0.19 0  0.585 0.19 0  0.59 0.19 0  0.595 0.19 0  0.6 0.19 0  0.605 0.19 0  0.61 0.19 0  0.615 0.19 0  0.62 0.19 0  0.625 0.19 0  0.63 0.19 0  0.635 0.19 0  0.64 0.19 0  0.645 0.19 0  0.65 0.19 0  0.655 0.19 0  0.66 0.19 0  0.665 0.19 0  0.67 0.19 0  0.32 0.19 0  0.325 0.19 0  0.325 0.195 0  0.32 0.195 0  0.33 0.195 0  0.335 0.195 0  0.34 0.195 0  0.345 0.195 0  0.35 0.195 0  0.355 0.195 0  0.36 0.195 0  0.365 0.195 0  0.37 0.195 0  0.375 0.195 0  0.38 0.195 0  0.385 0.195 0  0.39 0.195 0  0.395 0.195 0  0.4 0.195 0  0.405 0.195 0  0.41 0.195 0  0.415 0.195 0  0.42 0.195 0  0.425 0.195 0  0.43 0.195 0  0.435 0.195 0  0.44 0.195 0  0.445 0.195 0  0.45 0.195 0  0.455 0.195 0  0.46 0.195 0  0.465 0.195 0  0.47 0.195 0  0.475 0.195 0  0.48 0.195 0  0.485 0.195 0  0.49 0.195 0  0.495 0.195 0  0.5 0.195 0  0.505 0.195 0  0.51 0.195 0  0.515 0.195 0  0.52 0.195 0  0.525 0.195 0  0.53 0.195 0  0.535 0.195 0  0.54 0.195 0  0.545 0.195 0  0.55 0.195 0  0.555 0.195 0  0.5600000000000001 0.195 0  0.5649999999999999 0.195 0  0.57 0.195 0  0.575 0.195 0  0.58 0.195 0  0.585 0.195 0  0.59 0.195 0  0.595 0.195 0  0.6 0.195 0  0.605 0.195 0  0.61 0.195 0  0.615 0.195 0  0.62 0.195 0  0.625 0.195 0  0.63 0.195 0  0.635 0.195 0  0.64 0.195 0  0.645 0.195 0  0.65 0.195 0  0.655 0.195 0  0.66 0.195 0  0.665 0.195 0  0.67 0.195 0  0.675 0.19 0  0.675 0.195 0  0.68 0.195 0  0.31 0.195 0  0.315 0.195 0  0.315 0.2 0  0.31 0.2 0  0.32 0.2 0  0.325 0.2 0  0.33 0.2 0  0.335 0.2 0  0.34 0.2 0  0.345 0.2 0  0.35 0.2 0  0.355 0.2 0  0.36 0.2 0  0.365 0.2 0  0.37 0.2 0  0.375 0.2 0  0.38 0.2 0  0.385 0.2 0  0.39 0.2 0  0.395 0.2 0  0.4 0.2 0  0.405 0.2 0  0.41 0.2 0  0.415 0.2 0  0.42 0.2 0  0.425 0.2 0  0.43 0.2 0  0.435 0.2 0  0.44 0.2 0  0.445 0.2 0  0.45 0.2 0  0.455 0.2 0  0.46 0.2 0  0.465 0.2 0  0.47 0.2 0  0.475 0.2 0  0.48 0.2 0  0.485 0.2 0  0.49 0.2 0  0.495 0.2 0  0.5 0.2 0  0.505 0.2 0  0.51 0.2 0  0.515 0.2 0  0.52 0.2 0  0.525 0.2 0  0.53 0.2 0  0.535 0.2 0  0.54 0.2 0  0.545 0.2 0  0.55 0.2 0  0.555 0.2 0  0.5600000000000001 0.2 0  0.5649999999999999 0.2 0  0.57 0.2 0  0.575 0.2 0  0.58 0.2 0  0.585 0.2 0  0.59 0.2 0  0.595 0.2 0  0.6 0.2 0  0.605 0.2 0  0.61 0.2 0  0.615 0.2 0  0.62 0.2 0  0.625 0.2 0  0.63 0.2 0  0.635 0.2 0  0.64 0.2 0  0.645 0.2 0  0.65 0.2 0  0.655 0.2 0  0.66 0.2 0  0.665 0.2 0  0.67 0.2 0  0.675 0.2 0  0.68 0.2 0  0.6850000000000001 0.195 0  0.6850000000000001 0.2 0  0.6899999999999999 0.2 0  0.305 0.2 0  0.31 0.205 0  0.305 0.205 0  0.315 0.205 0  0.32 0.205 0  0.325 0.205 0  0.33 0.205 0  0.335 0.205 0  0.34 0.205 0  0.345 0.205 0  0.35 0.205 0  0.355 0.205 0  0.36 0.205 0  0.365 0.205
[...]
<PointData  Vectors="f_55"> 
<DataArray  type="Float64"  Name="f_55"  NumberOfComponents="3" format="ascii">1.3874644352880081e+00 1.2514258265476383e-01 0.0000000000000000e+00  1.4026809880635480e+00 1.2543862844360440e-01 0.0000000000000000e+00  1.4053691576142746e+00 1.2544240098046713e-01 0.0000000000000000e+00  1.3901181138173282e+00 1.2511348009611672e-01 0.0000000000000000e+00  1.4179038637027304e+00 1.2573360807690845e-01 0.0000000000000000e+00  1.4206127289924497e+00 1.2576267571725366e-01 0.0000000000000000e+00  1.4331213320961775e+00 1.2602768037786510e-01 0.0000000000000000e+00  1.4358416023848086e+00 1.2606304115038017e-01 0.0000000000000000e+00  1.4483243608394694e+00 1.2630884388128799e-01 0.0000000000000000e+00  1.4510466456136697e+00 1.2633278806685105e-01 0.0000000000000000e+00  1.4635055360299225e+00 1.2656744857419380e-01 0.0000000000000000e+00  1.4662314387628497e+00 1.2657396369207660e-01 0.0000000000000000e+00  1.4786643585340173e+00 1.2679987555858033e-01 0.0000000000000000e+00  1.4814012114059409e+00 1.2678906004027141e-01 0.0000000000000000e+00  1.4938036574027234e+00 1.2700594050526634e-01 0.0000000000000000e+00  1.4965601888809914e+00 1.2698186066511788e-01 0.0000000000000000e+00  1.5089264231477986e+00 1.2718704452533300e-01 0.0000000000000000e+00  1.5117090444736738e+00 1.2715473556650883e-01 0.0000000000000000e+00  1.5240343095799807e+00 1.2734458861757661e-01 0.0000000000000000e+00  1.5268461807149587e+00 1.2730847587283933e-01 0.0000000000000000e+00  1.5391278234086760e+00 1.2747950861743676e-01 0.0000000000000000e+00  1.5419695861749279e+00 1.2744302661853976e-01 0.0000000000000000e+00  1.5542068990469096e+00 1.2759229114450815e-01 0.0000000000000000e+00  1.5570776953650798e+00 1.2755803944241093e-01 0.0000000000000000e+00  1.5692713087129875e+00 1.2768308954135438e-01 0.0000000000000000e+00  1.5721695539425506e+00 1.2765311759352088e-01 0.0000000000000000e+00  1.5843208544807827e+00 1.2775180813480028e-01 0.0000000000000000e+00  1.5872447594817323e+00 1.2772787723108125e-01 0.0000000000000000e+00  1.5993554028942769e+00 1.2779813476750734e-01 0.0000000000000000e+00  1.6023033992216376e+00 1.2778193247947420e-01 0.0000000000000000e+00  1.6143748173337660e+00 1.2782154860505471e-01 0.0000000000000000e+00  1.6173460079669346e+00 1.2781484078379485e-01 0.0000000000000000e+00  1.6293788915185317e+00 1.2782140691770583e-01 0.0000000000000000e+00  1.6323734270720776e+00 1.2782598555723979e-01 0.0000000000000000e+00  1.6443676319370766e+00 1.2779737652837936e-01 0.0000000000000000e+00  1.6473863313102319e+00 1.2781438644193990e-01 0.0000000000000000e+00  1.6593417225353104e+00 1.2775033177636103e-01 0.0000000000000000e+00  1.6623844214554122e+00 1.2777868261164779e-01 0.0000000000000000e+00  1.6743053857970900e+00 1.2768374767336577e-01 0.0000000000000000e+00  1.6773657997745399e+00 1.2771801919646505e-01 0.0000000000000000e+00  1.6892608257891850e+00 1.2760516599128677e-01 0.0000000000000000e+00  1.6923246025171321e+00 1.2763263237014708e-01 0.0000000000000000e+00  1.7042062527218611e+00 1.2752138705923816e-01 0.0000000000000000e+00  1.7072711197912669e+00 1.2752548427746743e-01 0.0000000000000000e+00  1.7222128601912687e+00 1.2740244186417274e-01 0.0000000000000000e+00  1.3136150511189304e+00 1.2312219782400037e-01 0.0000000000000000e+00  1.3289375803139503e+00 1.2354893626917691e-01 0.0000000000000000e+00  1.3314678145673489e+00 1.2353435010923940e-01 0.0000000000000000e+00  1.3161217381978039e+00 1.2309099683329343e-01 0.0000000000000000e+00  1.3442626158743038e+00 1.2397353797613862e-01 0.0000000000000000e+00  1.3468050100200650e+00 1.2396330143427933e-01 0.0000000000000000e+00  1.3595713917823251e+00 1.2438336513892789e-01 0.0000000000000000e+00  1.3621180617278676e+00 1.2436288504843554e-01 0.0000000000000000e+00  1.3748538790699725e+00 1.2476367630512455e-01 0.0000000000000000e+00  1.3773976552703193e+00 1.2473014132051131e-01 0.0000000000000000e+00  1.3926610868148619e+00 1.2508074916797995e-01 0.0000000000000000e+00  1.4079238234380294e+00 1.2544252891115087e-01 0.0000000000000000e+00  1.4232001935543410e+00 1.2581219148836448e-01 0.0000000000000000e+00  1.4384139657378858e+00 1.2609899201605143e-01 0.0000000000000000e+00  1.4536409225166527e+00 1.2637261888566653e-01 0.0000000000000000e+00  1.4688565209655997e+00 1.2660340587258481e-01 0.0000000000000000e+00  1.4840536591834399e+00 1.2679985162221952e-01 0.0000000000000000e+00  1.4992344940658697e+00 1.2697414212637878e-01 0.0000000000000000e+00  1.5144031262110353e+00 1.2713386344753705e-01 0.0000000000000000e+00  1.5295606910582693e+00 1.2728094550347155e-01 0.0000000000000000e+00  1.5447055903337030e+00 1.2741425391223399e-01 0.0000000000000000e+00  1.5598354396375231e+00 1.2753194504709572e-01 0.0000000000000000e+00  1.5749483498606154e+00 1.2763246584748913e-01 0.0000000000000000e+00  1.5900433756042247e+00 1.2771470672213320e-01 0.0000000000000000e+00  1.6051206134941611e+00 1.2777784865754874e-01 0.0000000000000000e+00  1.6201812506774553e+00 1.2782111869288196e-01 0.0000000000000000e+00  1.6352275635235218e+00 1.2784341933506382e-01 0.0000000000000000e+00  1.6502627220843189e+00 1.2784270577358178e-01 0.0000000000000000e+00  1.6652905250355841e+00 1.2781524576826253e-01 0.0000000000000000e+00  1.6803162897128763e+00 1.2775546006945235e-01 0.0000000000000000e+00  1.6953505170740197e+00 1.2765808526193992e-01 0.0000000000000000e+00  1.7104122053792330e+00 1.2753491504664752e-01 0.0000000000000000e+00  1.7253370100928112e+00 1.2739550405238284e-01 0.0000000000000000e+00  1.7371342030687340e+00 1.2726026646733729e-01 0.0000000000000000e+00  1.7402739227625770e+00 1.2724299299394229e-01 0.0000000000000000e+00  1.7520351572603690e+00 1.2709125701977680e-01 0.0000000000000000e+00  1.7552094767763569e+00 1.2708451170506890e-01 0.0000000000000000e+00  1.7669220935445118e+00 1.2689960239383657e-01 0.0000000000000000e+00  1.7701224303459560e+00 1.2690222900437276e-01 0.0000000000000000e+00  1.7817989207853531e+00 1.2669575420596130e-01 0.0000000000000000e+00  1.7850157993406002e+00 1.2669280803096256e-01 0.0000000000000000e+00  1.7998986794363303e+00 1.2646324814120269e-01 0.0000000000000000e+00  1.2545802618768025e+00 1.2109709193985499e-01 0.0000000000000000e+00  1.2699870615858073e+00 1.2161759568411025e-01 0.0000000000000000e+00  1.2724024331010584e+00 1.2159759831269813e-01 0.0000000000000000e+00  1.2569792500342865e+00 1.2106422530542975e-01 0.0000000000000000e+00  1.2853891235736925e+00 1.2213338524770186e-01 0.0000000000000000e+00  1.2878148181755480e+00 1.2211548441666985e-01 0.0000000000000000e+00  1.3007649082028578e+00 1.2262767237282288e-01 0.0000000000000000e+00  1.3031993385135643e+00 1.2260169959535984e-01 0.0000000000000000e+00  1.3185546647353270e+00 1.2306214106257522e-01 0.0000000000000000e+00  1.3339051310332859e+00 1.2352424673453598e-01 0.0000000000000000e+00  1.3492658965770132e+00 1.2398693832272156e-01 0.0000000000000000e+00  1.3645704417040019e+00 1.2436886453781056e-01 0.0000000000000000e+00  1.3798703894805808e+00 1.2473030371062993e-01 0.0000000000000000e+00  1.3951347565599468e+00 1.2507666389116792e-01 0.0000000000000000e+00  1.4103904082203107e+00 1.2545245034023178e-01 0.0000000000000000e+00  1.4256991001065542e+00 1.2579596283435265e-01 0.0000000000000000e+00  1.4409830053730051e+00 1.2609829063495354e-01 0.0000000000000000e+00  1.4562408756122376e+00 1.2636127710433651e-01 0.0000000000000000e+00  1.4714887755585317e+00 1.2659566838694883e-01 0.0000000000000000e+00  1.4867189198560651e+00 1.2679950326397124e-01 0.0000000000000000e+00  1.5019305839583226e+00 1.2697973597554527e-01 0.0000000000000000e+00  1.5171256154350667e+00 1.2714205051193264e-01 0.0000000000000000e+00  1.5323059922951900e+00 1.2728943065976370e-01 0.0000000000000000e+00  1.5474723797262251e+00 1.2742225876715166e-01 0.0000000000000000e+00  1.5626243882596345e+00 1.2753951385204340e-01 0.0000000000000000e+00  1.5777613395004004e+00 1.2763977697245604e-01 0.0000000000000000e+00  1.5928828294079469e+00 1.2772168724467711e-01 0.0000000000000000e+00  1.6079890085007233e+00 1.2778400132326828e-01 0.0000000000000000e+00  1.6230806840987271e+00 1.2782545492186667e-01 0.0000000000000000e+00  1.6381593008872333e+00 1.2784451207225708e-01 0.0000000000000000e+00  1.6532267579428397e+00 1.2783901434578177e-01 0.0000000000000000e+00  1.6682849811838361e+00 1.2780586206090111e-01 0.0000000000000000e+00  1.6833352430692754e+00 1.2774132042796618e-01 0.0000000000000000e+00  1.6983762120683727e+00 1.2764324473375549e-01 0.0000000000000000e+00  1.7134064679400847e+00 1.2752217630712037e-01 0.0000000000000000e+00  1.7283972963729950e+00 1.2740642431438187e-01 0.0000000000000000e+00  1.7433467654737160e+00 1.2724294566114908e-01 0.0000000000000000e+00  1.7582916610714083e+00 1.2708138092998927e-01 0.0000000000000000e+00  1.7732620117532785e+00 1.2690434609315399e-01 0.0000000000000000e+00  1.7882767143034433e+00 1.2668825793166649e-01 0.0000000000000000e+00  1.8031540146571241e+00 1.2645873915810935e-01 0.0000000000000000e+00  1.8147614783930206e+00 1.2621393638919934e-01 0.0000000000000000e+00  1.8180409332198668e+00 1.2620803077273501e-01 0.0000000000000000e+00  1.8296064843477311e+00 1.2593964967172908e-01 0.0000000000000000e+00  1.8329129192851628e+00 1.2594175054465453e-01 0.0000000000000000e+00  1.8444390471158516e+00 1.2564897877912068e-01 0.0000000000000000e+00  1.8477660344305200e+00 1.2564918214456319e-01 0.0000000000000000e+00  1.8626080612585032e+00 1.2533555687475909e-01 0.0000000000000000e+00  1.2106141507514081e+00 1.1933605968948476e-01 0.0000000000000000e+00  1.2260869224773094e+00 1.1992761057791634e-01 0.0000000000000000e+00  1.2284137785621358e+00 1.1990253110029225e-01 0.0000000000000000e+00  1.2129270227300171e+00 1.1930027609116746e-01 0.0000000000000000e+00  1.2415443632862964e+00 1.2050952750461293e-01 0.0000000000000000e+00  1.2438862141101732e+00 1.2048593146475431e-01 0.0000000000000000e+00  1.2593251070717824e+00 1.2103943568604129e-01 0.0000000000000000e+00  1.2747458081878760e+00 1.2158786547645536e-01 0.0000000000000000e+00  1.2901706142922171e+00 1.2213328218935582e-01 0.0000000000000000e+00  1.3055532426560237e+00 1.2260347195861565e-01 0.0000000000000000e+00  1.3209224286051118e+00 1.2306178129547954e-01 0.0000000000000000e+00  1.3362676556292683e+00 1.2352868872039274e-01 0.0000000000000000e+00  1.3516548209344283e+00 1.2397450358594030e-01 0.0000000000000000e+00  1.3670183071609652e+00 1.2437716190698815e-01 0.0000000000000000e+00  1.3823530082115190e+00 1.2474463816330651e-01 0.0000000000000000e+00  1.3976698500509548e+00 1.2510181908706297e-01 0.0000000000000000e+00  1.4129740216712963e+00 1.2545652644103697e-01 0.0000000000000000e+00  1.4282831974184222e+00 1.2577872796914574e-01 0.0000000000000000e+00  1.4435884241908021e+00 1.2607841837354702e-01 0.0000000000000000e+00  1.4588781099891508e+00 1.2634722981897487e-01 0.0000000000000000e+00  1.4741508245588819e+00 1.2658479444947587e-01 0.0000000000000000e+00  1.4894065040722444e+00 1.2679520397272037e-01 0.0000000000000000e+00  1.5046449598371734e+00 1.2698236401620955e-01 0.0000000000000000e+00  1.5198666176839544e+00 1.2714957342369532e-01 0.0000000000000000e+00  1.5350725822846456e+00 1.2729930701229009e-01 0.0000000000000000e+00  1.5502637647020530e+00 1.2743254543464441e-01 0.0000000000000000e+00  1.5654406291590373e+00 1.2754906329506729e-01 0.0000000000000000e+00  1.5806033132216137e+00 1.2764793785508982e-01 0.0000000000000000e+00  1.5957518951711298e+00 1.2772796101259296e-01 0.0000000000000000e+00  1.6108866076758022e+00 1.2778782419530263e-01 0.0000000000000000e+00  1.6260079297797718e+00 1.2782612775038088e-01 0.0000000000000000e+00  1.6411165427559924e+00 1.2784129758423657e-01 0.0000000000000000e+00  1.6562131231402473e+00 1.2783149312801123e-01 0.0000000000000000e+00  1.6712979268254515e+00 1.2779468723397938e-01 0.0000000000000000e+00  1.6863700719345358e+00 1.2772932346345001e-01 0.0000000000000000e+00  1.7014271016254041e+00 1.2763648140496975e-01 0.0000000000000000e+00  1.7164639344912562e+00 1.2752402743982266e-01 0.0000000000000000e+00  1.7314797268545747e+00 1.2740509369785979e-01 0.0000000000000000e+00  1.7464792854903992e+00 1.2725477139484795e-01 0.0000000000000000e+00  1.7614618653537200e+00 1.2708540182084999e-01 0.0000000000000000e+00  1.7764380471202597e+00 1.2689401108991893e-01 0.0000000000000000e+00  1.7914113986125049e+00 1.2667616873066115e-01 0.0000000000000000e+00  1.8063484355540731e+00 1.2646687458954764e-01 0.0000000000000000e+00  1.8212464764391485e+00 1.2621196986118668e-01 0.0000000000000000e+00  1.8361614767520320e+00 1.2594512383139833e-01 0.0000000000000000e+00  1.8511299832178518e+00 1.2564553431602846e-01 0.0000000000000000e+00  1.8659664297143530e+00 1.2533625185714800e-01 0.0000000000000000e+00  1.8774294955711506e+00 1.2500346997710390e-01 0.0000000000000000e+00  1.8808111567059784e+00 1.2500111213826026e-01 0.0000000000000000e+00  1.8922341393698616e+00 1.2465153721889498e-01 0.0000000000000000e+00  1.8956412370870592e+00 1.2464791881990621e-01 0.0000000000000000e+00  1.9104580590550135e+00 1.2427332331264787e-01 0.0000000000000000e+00  1.1663706773272993e+00 1.1737197083827061e-01 0.0000000000000000e+00  1.1819091720349384e+00 1.1802835594958257e-01 0.0000000000000000e+00  1.1841621125824653e+00 1.1800146419326876e-01 0.0000000000000000e+00  1.1686127140339053e+00 1.1733265335661577e-01 0.0000000000000000e+00  1.1974296398829150e+00 1.1867791167839065e-01 0.0000000000000000e+00  1.1996982661523099e+00 1.1865386837788593e-01 0.0000000000000000e+00  1.2152008455010759e+00 1.1927546886559959e-01 0.0000000000000000e+00  1.2306815836180152e+00 1.1989136094270834e-01 0.0000000000000000e+00  1.2461616409379341e+00 1.2049798901248611e-01 0.0000000000000000e+00  1.2616014027190128e+00 1.2104284036452569e-01 0.0000000000000000e+00  1.2770247108021502e+00 1.2159677834462594e-01 0.0000000000000000e+00  1.2924776275159655e+00 1.2212620895715565e-01 0.0000000000000000e+00  1.3079120001448270e+00 1.2261534594465733e-01 0.0000000000000000e+00  1.3233215392756037e+00 1.2307860148090663e-01 0.0000000000000000e+00  1.3387183749346154e+00 1.2353659606497665e-01 0.0000000000000000e+00  1.3541123662240977e+00 1.2396520910924502e-01 0.0000000000000000e+00  1.3694997024996016e+00 1.2437101004652740e-01 0.0000000000000000e+00  1.3848688374337008e+00 1.2475030701234691e-01 0.0000000000000000e+00  1.4002201871966142e+00 1.2511080897276364e-01 0.0000000000000000e+00  1.4155597430454778e+00 1.2545597541650955e-01 0.0000000000000000e+00  1.4308923849456519e+00 1.2577298798661329e-01 0.0000000000000000e+00  1.4462151353363921e+00 1.2606784203840024e-01 0.0000000000000000e+00  1.4615264478038639e+00 1.2633688318784933e-01 0.0000000000000000e+00  1.4768235392663980e+00 1.2657772916941565e-01 0.0000000000000000e+00  1.4921048197495397e+00 1.2679261643069070e-01 0.0000000000000000e+00  1.5073696998939310e+00 1.2698421385413872e-01 0.0000000000000000e+00  1.5226181624240880e+00 1.2715494948114078e-01 0.0000000000000000e+00  1.5378508197644802e+00 1.2730673612568816e-01 0.0000000000000000e+00  1.5530684294827497e+00 1.2744054608715638e-01 0.0000000000000000e+00  1.5682716313668470e+00 1.2755647115523938e-01 0.0000000000000000e+00  1.5834608513121691e+00 1.2765394097893668e-01 0.0000000000000000e+00  1.5986363711587588e+00 1.2773199601205296e-01 0.0000000000000000e+00  1.6137984285781439e+00 1.2778947337559063e-01 0.0000000000000000e+00  1.6289472665381572e+00 1.2782509585004745e-01 0.0000000000000000e+00  1.6440830934823594e+00 1.2783750773725303e-01 0.0000000000000000e+00  1.6592059383544302e+00 1.2782533568340285e-01 0.0000000000000000e+00  1.6743154010163830e+00 1.2778740971588470e-01 0.0000000000000000e+00  1.6894104078907759e+00 1.2772337622760443e-01 0.0000000000000000e+00  1.7044891394558439e+00 1.2763488925542232e-01 0.0000000000000000e+00  1.7195501989610873e+00 1.2752691239693034e-01 0.0000000000000000e+00  1.7345943628602614e+00 1.2740402852933866e-01 0.0000000000000000e+00  1.7496233610169833e+00 1.2725605486496977e-01 0.0000000000000000e+00  1.7646359180455238e+00 1.2708662719988192e-01 0.0000000000000000e+00  1.7796341534091593e+00 1.2689403117376363e-01 0.0000000000000000e+00  1.7946153297926462e+00 1.2668106676495008e-01 0.0000000000000000e+00  1.8095774375362754e+00 1.2646399292065189e-01 0.0000000000000000e+00  1.8245255478573612e+00 1.2621568935169322e-01 0.0000000000000000e+00  1.8394594513473781e+00 1.2593894467497807e-01 0.0000000000000000e+00  1.8543892871976528e+00 1.2563503269617743e-01 0.0000000000000000e+00  1.8692864053175891e+00 1.2534219827351492e-01 0.0000000000000000e+00  1.8841522859638473e+00 1.2500453398086639e-01 0.0000000000000000e+00  1.8990791662482880e+00 1.2463967203627027e-01 0.0000000000000000e+00  1.9138942203407976e+00 1.2427262472705429e-01 0.0000000000000000e+00  1.9252525828110891e+00 1.2387835772679931e-01 0.0000000000000000e+00  1.9287167603765516e+00 1.2387891527288876e-01 0.0000000000000000e+00  1.9400306778953749e+00 1.2346401751450356e-01 0.0000000000000000e+00  1.9435213740412791e+00 1.2346362595715554e-01 0.0000000000000000e+00  1.9583127188792251e+00 1.2302738927426783e-01 0.0000000000000000e+00  1.1374712297773539e+00 1.1593344968134620e-01 0.0000000000000000e+00  1.1530520509134423e+00 1.1664321513142760e-01 0.0000000000000000e+00  1.1552420347788381e+00 1.1661366715934707e-01 0.0000000000000000e+00  1.1396437829691892e+00 1.1589655431766396e-01 0.0000000000000000e+00  1.1708199432843800e+00 1.1730584756315417e-01 0.0000000000000000e+00  1.1863633150592592e+00 1.1799076115672526e-01 0.0000000000000000e+00  1.2018970544719465e+00 1.1866522164052420e-01 0.0000000000000000e+00  1.2174046280247057e+00 1.1927748820669652e-01 0.0000000000000000e+00  1.2328905895488167e+00 1.1989980638327515e-01 0.0000000000000000e+00  1.2484028724981335e+00 1.2049654125791945e-01 0.0000000000000000e+00  1.2638965388018470e+00 1.2105841891270984e-01 0.0000000000000000e+00  1.2793699023071068e+00 1.2160311997376083e-01 0.0000000000000000e+00  1.2948394678407211e+00 1.2212034829977897e-01 0.0000000000000000e+00  1.3103004485467924e+00 1.2261359469318940e-01 0.0000000000000000e+00  1.3257445415710352e+00 1.2308478773231687e-01 0.0000000000000000e+00  1.3411743618102987e+00 1.2353796471441146e-01 0.0000000000000000e+00  1.3565942991721096e+00 1.2396474199464974e-01 0.0000000000000000e+00  1.3720026231254387e+00 1.2436939437789163e-01 0.0000000000000000e+00  1.3873979899543940e+00 1.2475169995676613e-01 0.0000000000000000e+00  1.4027794206524118e+00 1.2511299280619098e-01 0.0000000000000000e+00  1.4181486317255001e+00 1.2545392098880026e-01 0.0000000000000000e+00  1.4335073661633329e+00 1.2576949562402456e-01 0.0000000000000000e+00  1.4488546121539012e+00 1.2606204047096323e-01 0.0000000000000000e+00  1.4641899291151372e+00 1.2633004784587751e-01 0.0000000000000000e+00  1.4795117104112359e+00 1.2657259046470570e-01 0.0000000000000000e+00  1.4948184183757318e+00 1.2679048594302603e-01 0.0000000000000000e+00  1.5101093649573039e+00 1.2698534556394020e-01 0.0000000000000000e+00  1.5253844733916748e+00 1.2715891091669340e-01 0.0000000000000000e+00  1.5406440528117555e+00 1.2731253363093203e-01 0.0000000000000000e+00  1.5558886202907676e+00 1.2744700999562636e-01 0.0000000000000000e+00  1.5711187263828901e+00 1.2756253543339557e-01 0.0000000000000000e+00  1.5863348264359745e+00 1.2765877808845000e-01 0.0000000000000000e+00  1.6015372476289715e+00 1.2773503261243963e-01 0.0000000000000000e+00  1.6167262003527603e+00 1.2779036579959666e-01 0.0000000000000000e+00  1.6319017869528292e+00 1.2782373085162926e-01 0.0000000000000000e+00  1.6470639722876674e+00 1.2783406315072338e-01 0.0000000000000000e+00  1.6622125064635502e+00 1.2782040552746965e-01 0.0000000000000000e+00  1.6773468251632020e+00 1.2778214030571300e-01 0.0000000000000000e+00  1.6924660019036848e+00 1.2771940576251284e-01 0.0000000000000000e+00  1.7075689556